iffcluster1919: Using Ethernet for MPI communication.
iffcluster1919: Using Ethernet for MPI communication.
iffcluster1919: Using Ethernet for MPI communication.
iffcluster1919: Using Ethernet for MPI communication.
iffcluster1919: Using Ethernet for MPI communication.
iffcluster1919: Using Ethernet for MPI communication.
iffcluster1919: Using Ethernet for MPI communication.
iffcluster1919: Using Ethernet for MPI communication.
iffcluster1919: Using Ethernet for MPI communication.
iffcluster1919: Using Ethernet for MPI communication.
iffcluster1919: Using Ethernet for MPI communication.
iffcluster1919: Using Ethernet for MPI communication.
iffcluster1919: Using Ethernet for MPI communication.
iffcluster1919: Using Ethernet for MPI communication.
iffcluster1919: Using Ethernet for MPI communication.
iffcluster1919: Using Ethernet for MPI communication.
iffcluster1919: Using Ethernet for MPI communication.
iffcluster1919: Using Ethernet for MPI communication.
iffcluster1919: Using Ethernet for MPI communication.
iffcluster1919: Using Ethernet for MPI communication.
iffcluster1919: Using Ethernet for MPI communication.
iffcluster1919: Using Ethernet for MPI communication.
iffcluster1919: Using Ethernet for MPI communication.
iffcluster1919: Using Ethernet for MPI communication.
iffcluster1919: Using Ethernet for MPI communication.
iffcluster1919: Using Ethernet for MPI communication.
iffcluster1919: Using Ethernet for MPI communication.
iffcluster1919: Using Ethernet for MPI communication.
iffcluster1919: Using Ethernet for MPI communication.
iffcluster1919: Using Ethernet for MPI communication.
iffcluster1919: Using Ethernet for MPI communication.
iffcluster1919: Using Ethernet for MPI communication.
 isize=          32
 irank=           0
 rvecnum=         157
 num_wann=          44
         471
 irank=           0
 nrpts_ok
 Hdim is         440
 locmin,locmax           0           9
 here is no problem
 Hdim is           0
 locmin,locmax -2147483648 -2147483648
 Hdim is           0
 locmin,locmax -2147483648 -2147483648
 Hdim is           0
 locmin,locmax -2147483648 -2147483648
 Hdim is           0
 locmin,locmax -2147483648 -2147483648
 Hdim is           0
 locmin,locmax -2147483648 -2147483648
 Hdim is           0
 locmin,locmax -2147483648 -2147483648
 Hdim is           0
 locmin,locmax -2147483648 -2147483648
 Hdim is           0
 locmin,locmax -2147483648 -2147483648
 Hdim is           0
 locmin,locmax -2147483648 -2147483648
 Hdim is           0
 locmin,locmax -2147483648 -2147483648
 Hdim is           0
 locmin,locmax -2147483648 -2147483648
 Hdim is           0
 locmin,locmax -2147483648 -2147483648
 Hdim is           0
 locmin,locmax -2147483648 -2147483648
 Hdim is           0
 locmin,locmax -2147483648 -2147483648
 Hdim is           0
 locmin,locmax -2147483648 -2147483648
 Hdim is           0
 locmin,locmax -2147483648 -2147483648
 Hdim is           0
 locmin,locmax -2147483648 -2147483648
 Hdim is           0
 locmin,locmax -2147483648 -2147483648
 Hdim is           0
 locmin,locmax -2147483648 -2147483648
 Hdim is           0
 locmin,locmax -2147483648 -2147483648
 Hdim is           0
 locmin,locmax -2147483648 -2147483648
 Hdim is           0
 locmin,locmax -2147483648 -2147483648
 Hdim is           0
 locmin,locmax -2147483648 -2147483648
 Hdim is           0
 locmin,locmax -2147483648 -2147483648
 Hdim is           0
 locmin,locmax -2147483648 -2147483648
 Hdim is           0
 locmin,locmax -2147483648 -2147483648
 Hdim is           0
 locmin,locmax -2147483648 -2147483648
 here is no problem1
 here is no problem2
 Hdim is           0
 locmin,locmax -2147483648 -2147483648
 Hdim is           0
 locmin,locmax -2147483648 -2147483648
 Hdim is           0
 locmin,locmax -2147483648 -2147483648
 Hdim is           0
 locmin,locmax -2147483648 -2147483648
